                         Program Version 4.0.1 -  RELEASE  -
|  1> !  sto-3g  bp86  nousesym
|  2>
|  3>
|  4> %output
|  5> Print[ P_Overlap ] 1
|  6> Print[ P_MOs ] 1
|  7> end
|  8>
|  9> %tddft
| 10>   tda false
| 11>   triplets true
| 12>   nroots 2
| 13> end
| 14>
| 15> * xyz 0 1
| 16> C          0.00000        1.05800       -0.00000
| 17> H          0.92500        1.63000       -0.00000
| 18> H         -0.92500        1.63000        0.00000
| 19> S          0.00000       -0.60100        0.00000
| 20> *
| 21>
| 22>                          ****END OF INPUT****

CARTESIAN COORDINATES (ANGSTROEM)
---------------------------------
  C      0.000000    1.058000   -0.000000
  H      0.925000    1.630000   -0.000000
  H     -0.925000    1.630000    0.000000
  S      0.000000   -0.601000    0.000000

 Total Charge           Charge          ....    0
 Multiplicity           Mult            ....    1
 Number of Electrons    NEL             ....   24
 Basis Dimension        Dim             ....   16

ORBITAL ENERGIES
----------------

  NO   OCC          E(Eh)            E(eV)
   0   2.0000     -86.923170     -2365.2997
   1   2.0000      -9.723708      -264.5955
   2   2.0000      -7.310211      -198.9210
   3   2.0000      -5.329929      -145.0347
   4   2.0000      -5.327992      -144.9820
   5   2.0000      -5.303980      -144.3286
   6   2.0000      -0.640435       -17.4271
   7   2.0000      -0.468525       -12.7492
   8   2.0000      -0.350939        -9.5495
   9   2.0000      -0.250405        -6.8139
  10   2.0000      -0.179864        -4.8944
  11   2.0000      -0.065878        -1.7926
  12   0.0000      -0.004167        -0.1134
  13   0.0000       0.293081         7.9751
  14   0.0000       0.409635        11.1467
  15   0.0000       0.438139        11.9224
------------------
MOLECULAR ORBITALS
------------------
                      0         1         2         3         4         5
                 -86.92317  -9.72371  -7.31021  -5.32993  -5.32799  -5.30398
                   2.00000   2.00000   2.00000   2.00000   2.00000   2.00000
                  --------  --------  --------  --------  --------  --------
  0C   1s        -0.000082 -0.990564  0.001747  0.001572  0.000000  0.000000
  0C   2s         0.000686 -0.042855 -0.013711 -0.019187 -0.000000 -0.000000
  0C   1pz        0.000000  0.000000  0.000000 -0.000000  0.005723  0.000000
  0C   1px       -0.000000 -0.000000  0.000000  0.000000 -0.000000  0.006409
  0C   1py       -0.000590 -0.000152  0.010650  0.013754  0.000000 -0.000000
  1H   1s         0.000010  0.009560 -0.000172  0.000072  0.000000 -0.000863
  2H   1s         0.000010  0.009560 -0.000172  0.000072 -0.000000  0.000863
  3S   1s         0.994029  0.000105 -0.366460  0.007021  0.000000 -0.000000
  3S   2s         0.017507 -0.000107  1.043023 -0.020216 -0.000000  0.000000
  3S   1pz        0.000000 -0.000000 -0.000000  0.000000 -0.982120 -0.000000
  3S   1px        0.000000 -0.000000  0.000000 -0.000000  0.000000 -0.982253
  3S   1py        0.000199 -0.000900  0.015840  0.979784  0.000000 -0.000000
  3S   3s        -0.002711  0.007039  0.065535  0.009505  0.000000  0.000000
  3S   2pz       -0.000000  0.000000  0.000000  0.000000 -0.062657 -0.000000
  3S   2px        0.000000  0.000000 -0.000000 -0.000000  0.000000 -0.062252
  3S   2py       -0.000474  0.006910  0.009882  0.073309  0.000000 -0.000000
                      6         7         8         9        10        11
                  -0.64043  -0.46853  -0.35094  -0.25040  -0.17986  -0.06588
                   2.00000   2.00000   2.00000   2.00000   2.00000   2.00000
                  --------  --------  --------  --------  --------  --------
  0C   1s        -0.189946 -0.124705 -0.000000  0.053128  0.000000  0.000000
  0C   2s         0.539509  0.400571  0.000000 -0.232797 -0.000000 -0.000000
  0C   1pz        0.000000  0.000000 -0.000000 -0.000000  0.638011  0.000000
  0C   1px        0.000000 -0.000000  0.568814  0.000000  0.000000 -0.027924
  0C   1py       -0.096265  0.303516  0.000000  0.494065  0.000000 -0.000000
  1H   1s         0.130887  0.244793  0.393745  0.157049  0.000000 -0.208188
  2H   1s         0.130887  0.244793 -0.393745  0.157049 -0.000000  0.208188
  3S   1s         0.059670 -0.066788 -0.000000  0.045330  0.000000  0.000000
  3S   2s        -0.203826  0.222399  0.000000 -0.142344 -0.000000 -0.000000
  3S   1pz       -0.000000 -0.000000  0.000000  0.000000 -0.227066 -0.000000
  3S   1px       -0.000000 -0.000000 -0.055211 -0.000000  0.000000 -0.316944
  3S   1py       -0.069978  0.005167  0.000000  0.207049  0.000000  0.000000
  3S   3s         0.523937 -0.676264 -0.000000  0.575326  0.000000  0.000000
  3S   2pz        0.000000  0.000000 -0.000000 -0.000000  0.698021  0.000000
  3S   2px        0.000000  0.000000  0.151502  0.000000 -0.000000  1.010253
  3S   2py        0.158335 -0.015875 -0.000000 -0.575807 -0.000000 -0.000000
                     12        13        14        15
                  -0.00417   0.29308   0.40963   0.43814
                   0.00000   0.00000   0.00000   0.00000
                  --------  --------  --------  --------
  0C   1s        -0.000000 -0.202225 -0.108295 -0.000000
  0C   2s         0.000000  1.182515  0.700724  0.000000
  0C   1pz        0.786536 -0.000000 -0.000000  0.000000
  0C   1px       -0.000000 -0.000000 -0.000000  1.145242
  0C   1py       -0.000000 -0.487561  1.012561  0.000000
  1H   1s        -0.000000 -0.428351 -0.802120 -0.863148
  2H   1s        -0.000000 -0.428351 -0.802120  0.863148
  3S   1s        -0.000000 -0.029439  0.014507  0.000000
  3S   2s         0.000000  0.082771 -0.038068 -0.000000
  3S   1pz        0.236765 -0.000000 -0.000000  0.000000
  3S   1px       -0.000000 -0.000000 -0.000000  0.062778
  3S   1py        0.000000  0.259816 -0.108435 -0.000000
  3S   3s        -0.000000 -0.509561  0.284648  0.000000
  3S   2pz       -0.779274  0.000000  0.000000 -0.000000
  3S   2px        0.000000  0.000000  0.000000 -0.231402
  3S   2py       -0.000000 -0.981353  0.438061  0.000000

MULLIKEN ATOMIC CHARGES
-----------------------
   0 C :   -0.261050
   1 H :    0.080047
   2 H :    0.080047
   3 S :    0.100956
Sum of atomic charges:   -0.0000000

LOEWDIN ATOMIC CHARGES
----------------------
   0 C :   -0.178754
   1 H :    0.038144
   2 H :    0.038144
   3 S :    0.102467

  Mayer bond orders larger than 0.1
B(  0-C ,  1-H ) :   0.9510 B(  0-C ,  2-H ) :   0.9510 B(  0-C ,  3-S ) :   2.0176

-----------------------------------------------------------------------------
         ABSORPTION SPECTRUM VIA TRANSITION ELECTRIC DIPOLE MOMENTS
-----------------------------------------------------------------------------
State   Energy  Wavelength   fosc         T2         TX        TY        TZ
        (cm-1)    (nm)                  (au**2)     (au)      (au)      (au)
-----------------------------------------------------------------------------
   1   16562.9    603.8   0.000000000   0.00000  -0.00000  -0.00000   0.00000
   2   59933.2    166.9   0.023056703   0.12665  -0.00000  -0.00000   0.35588
   3   10069.1    993.1   spin forbidden (mult=3)
   4   23501.3    425.5   spin forbidden (mult=3)

FINAL SINGLE POINT ENERGY      -432.510258949666

DIPOLE MOMENT
-------------
                                X             Y             Z
Electronic contribution:      0.00000      -2.93995      -0.00000
Nuclear contribution   :      0.00000       3.20711       0.00000
                        -----------------------------------------
Total Dipole Moment    :      0.00000       0.26715      -0.00000
                        -----------------------------------------
Magnitude (a.u.)       :      0.26715
Magnitude (Debye)      :      0.67905

                             ****ORCA TERMINATED NORMALLY****
TOTAL RUN TIME: 0 days 0 hours 0 minutes 3 seconds 465 msec
